# vtk DataFile Version 4.0
Generated by LIGGGHTS
ASCII
DATASET POLYDATA
POINTS 9240 float
0.000600379 0.000602667 0.000601367 0.00231073 0.000599802 0.000600062 0.0036888 0.000600063 0.000607314 
0.00488955 0.000603341 0.000603319 0.00608727 0.000716549 0.000601357 0.00728157 0.000600904 0.000600621 
0.0108153 0.000599968 0.000599826 0.0131014 0.000600793 0.000600437 0.0143014 0.000599941 0.000600178 
0.0155014 0.000599892 0.00060007 0.0167013 0.000599826 0.000601357 0.0179011 0.000599881 0.000600242 
0.0200959 0.000599874 0.000605054 0.021296 0.000599951 0.000600214 0.00146643 0.00145234 0.000600357 
0.00843041 0.000951777 0.000602249 0.00963395 0.000918412 0.000603249 0.0119593 0.000969231 0.000600003 
0.0189984 0.00108497 0.000600638 0.000599931 0.00228232 0.000600052 0.00299901 0.00158251 0.000600055 
0.00419413 0.00168847 0.000600102 0.00539396 0.00169711 0.000599883 0.00658423 0.00184791 0.000599856 
0.00777209 0.00201657 0.000600577 0.00897186 0.002023 0.000600168 0.0101715 0.00200642 0.000606646 
0.0113713 0.00201639 0.000599954 0.0125708 0.00203918 0.000599894 0.013702 0.00163947 0.000599968 
0.0149018 0.00163926 0.00060107 0.0161015 0.00163901 0.000599934 0.0171988 0.00212421 0.00060108 
0.0183987 0.00212418 0.000600103 0.0195985 0.00212411 0.000600886 0.020696 0.00163911 0.000600069 
0.00233896 0.00258439 0.000600062 0.00353739 0.00269282 0.000600639 0.00478128 0.00273496 0.0006001 
0.00597228 0.00288029 0.000600498 0.00716164 0.00305075 0.00060167 0.00836261 0.00306125 0.000601699 
0.00956352 0.00306778 0.000600438 0.0107669 0.0030582 0.000602078 0.0119666 0.00307723 0.000600649 
0.0142993 0.00268031 0.000599965 0.0154992 0.00268 0.00060022 0.0212953 0.00267881 0.000600957 
0.000599727 0.00348215 0.00060021 0.00178754 0.00364998 0.000600561 0.00298238 0.00375744 0.000600224 
0.00418199 0.00377464 0.000599973 0.0131681 0.00308054 0.00060007 0.0148898 0.00372486 0.000600356 
0.0165979 0.00316275 0.00060167 0.017798 0.00316376 0.000600445 0.0189979 0.00316371 0.000600383 
0.0201977 0.00316356 0.000600189 0.00537292 0.00392035 0.000600186 0.00655802 0.00410798 0.000600565 
0.00775779 0.00410488 0.000600555 0.00895787 0.00410369 0.000600269 0.0101579 0.00411086 0.000600315 
0.011358 0.00411335 0.00060019 0.0125579 0.00412165 0.000600227 0.0137582 0.00412545 0.000600212 
0.0159922 0.00419848 0.000599993 0.0171972 0.00420259 0.000599902 0.0183971 0.00420343 0.00060022 
0.0195969 0.00420327 0.000600119 0.0207968 0.00420305 0.000599771 0.00105547 0.00468166 0.000607473 
0.00225652 0.00475436 0.000600322 0.0034515 0.00486217 0.000600316 0.00465119 0.00487936 0.000600809 
0.00579991 0.00522572 0.000600185 0.00699971 0.00522349 0.000600026 0.00819954 0.00522048 0.000600776 
0.00939926 0.00522063 0.000600337 0.0105991 0.00522769 0.000599834 0.0117988 0.00523347 0.000600524 
0.0129985 0.00523812 0.000601138 0.0141983 0.00524171 0.000600293 0.015398 0.00524099 0.000600313 
0.0165977 0.00524197 0.000600664 0.0177974 0.00524255 0.000600003 0.0189972 0.00524262 0.000600363 
0.020197 0.00524282 0.000600118 0.0213968 0.00524259 0.000600338 0.00165113 0.00579022 0.000600833 
0.00284429 0.00591713 0.000599733 0.00404416 0.00591464 0.000599808 0.000599786 0.00636798 0.00060041 
0.00519092 0.00626747 0.000601276 0.00639421 0.00626815 0.000600145 0.00759576 0.00626614 0.000600335 
0.00879586 0.00626177 0.000600778 0.00999589 0.00626506 0.000600566 0.0111958 0.00627125 0.000600775 
0.0123958 0.00627718 0.000600347 0.0135964 0.00628125 0.00060065 0.0147967 0.00628181 0.000599981 
0.0159966 0.00628112 0.00060063 0.0171966 0.00628174 0.000600057 0.0183966 0.00628207 0.000599973 
0.0195965 0.00628231 0.000599985 0.0207964 0.00628231 0.000600102 0.000599821 0.00756777 0.000599927 
0.00165181 0.00699033 0.000600943 0.0034457 0.0069583 0.000600299 0.00459218 0.00731429 0.000600011 
0.00579318 0.00731459 0.000600137 0.00699505 0.00730698 0.000599931 0.00819493 0.00731068 0.000600492 
0.00939535 0.00730499 0.000599845 0.0105954 0.00731126 0.000600014 0.0117953 0.00731675 0.000600433 
0.0129954 0.0073205 0.000600544 0.0141957 0.00732109 0.000599977 0.015396 0.00732151 0.000600006 
0.016596 0.00732094 0.000599941 0.017796 0.00732126 0.000600743 0.0189963 0.00732142 0.000599945 
0.0201962 0.00732169 0.00060037 0.0213962 0.00732157 0.000600743 0.00256337 0.00777277 0.000600741 
0.00398537 0.00835273 0.000599902 0.00519329 0.00835722 0.000600309 0.0063935 0.00835528 0.000600145 
0.00759384 0.00834938 0.000600199 0.00879431 0.00835223 0.000601151 0.00999505 0.00835571 0.000600106 
0.0111952 0.00835657 0.000599983 0.0123953 0.00835972 0.000600795 0.0135956 0.0083603 0.000600196 
0.0147957 0.00836042 0.000600344 0.015996 0.00836075 0.000601276 0.017196 0.00836083 0.000600103 
0.018396 0.00836044 0.000600105 0.0195959 0.00836085 0.000599996 0.0207956 0.00836107 0.000599596 
0.000600011 0.00891291 0.000600025 0.00169715 0.00939901 0.000600126 0.00339774 0.00940002 0.000599968 
0.00459749 0.00940011 0.000599877 0.00579735 0.00939864 0.000600928 0.00699729 0.0094001 0.000599801 
0.0081971 0.00939342 0.000600288 0.00939694 0.00940002 0.000600525 0.0105967 0.009399 0.000601218 
0.0117965 0.00940005 0.000600132 0.0129964 0.00940008 0.000601406 0.0141963 0.00940003 0.000600001 
0.0153961 0.00940003 0.000600009 0.0165961 0.00940006 0.000600173 0.0177962 0.00939991 0.000600222 
0.018996 0.00939999 0.000601694 0.0201958 0.00940013 0.000600975 0.0213959 0.00940009 0.000600219 
0.00145568 0.00060003 0.0014459 0.000608563 0.00146257 0.00148699 0.0172151 0.00128044 0.00145467 
0.00141281 0.00275544 0.00134579 0.000601169 0.00549483 0.00143151 0.00254706 0.00681628 0.00138409 
0.00151593 0.00824006 0.000984962 0.0025491 0.00880807 0.00120737 0.00299784 0.000603135 0.00159239 
0.00420032 0.000600272 0.00169651 0.0054048 0.000600136 0.00168786 0.0066097 0.000601095 0.00167637 
0.00781028 0.000608663 0.00168549 0.00900987 0.000602366 0.00159824 0.010214 0.000607099 0.00163927 
0.0114217 0.000600524 0.00163774 0.0126207 0.000601249 0.00170307 0.0138295 0.000604589 0.0017042 
0.0150306 0.00060023 0.00172006 0.0162408 0.000602899 0.00172615 0.0180399 0.000602179 0.00200681 
0.019267 0.000600572 0.00167995 0.0204725 0.000601223 0.00174585 0.00223224 0.00152441 0.00152137 
0.00359236 0.00169133 0.00163857 0.00479607 0.00164018 0.00163913 0.00600726 0.00163813 0.00163074 
0.00720888 0.0016445 0.00160952 0.00840969 0.0016437 0.00159045 0.00960939 0.0016463 0.00160425 
0.0108143 0.00164734 0.00160401 0.0120173 0.00164133 0.00159368 0.0132129 0.00164493 0.00169613 
0.0144329 0.00164342 0.00170493 0.0156365 0.00163981 0.00172094 0.0186058 0.00160247 0.00166126 
0.0198711 0.00163813 0.00167209 0.0210726 0.00164309 0.00173943 0.000602184 0.00259528 0.00221605 
0.00256229 0.00306228 0.00167797 0.00383927 0.00286176 0.00175004 0.00540301 0.00267556 0.00163884 
0.00660327 0.00268072 0.00160196 0.00780329 0.00268696 0.00159981 0.00900612 0.00268976 0.00159688 
0.0102081 0.00268652 0.00160415 0.0114136 0.00268956 0.00160479 0.0126244 0.002692 0.00160655 
0.0138228 0.0026786 0.00170177 0.0150403 0.00268269 0.00171038 0.0165314 0.00242751 0.00156078 
0.0179653 0.0026185 0.00165666 0.0192117 0.00264038 0.00166128 0.0204698 0.00269455 0.00167503 
0.00162067 0.00370121 0.00205855 0.00473453 0.00367878 0.0016611 0.00595151 0.00374381 0.00163764 
0.00715083 0.00375295 0.00159389 0.00835058 0.00375509 0.00158351 0.0095513 0.00376052 0.00158766 
0.0107519 0.00375692 0.00158217 0.0119518 0.00376564 0.00159516 0.0131514 0.00376942 0.00158194 
0.0142996 0.00375556 0.00193254 0.0154638 0.00381965 0.00165022 0.0166637 0.00381934 0.001604 
0.0178617 0.0038157 0.00166753 0.0190602 0.00382944 0.00160791 0.0213955 0.00384217 0.00157742 
0.000600371 0.00416115 0.0015896 0.00335786 0.00396062 0.00172232 0.0202313 0.00386466 0.00186706 
0.00157452 0.00485094 0.00171248 0.00276446 0.00500232 0.00165905 0.00401694 0.00496155 0.00165409 
0.00520381 0.00478429 0.00166637 0.00639842 0.00485617 0.00157362 0.00759859 0.00486807 0.00158062 
0.0087987 0.00486935 0.00158341 0.00999868 0.00487392 0.00158669 0.0111994 0.00487301 0.00157849 
0.0123991 0.00488036 0.00157819 0.0135988 0.00488595 0.00158727 0.0147977 0.00483754 0.00155829 
0.0159961 0.00489275 0.00158078 0.0171962 0.00489473 0.00159185 0.0183959 0.0048979 0.00158545 
0.0195956 0.00490308 0.00158624 0.0207954 0.0048946 0.0015803 0.00340461 0.00601758 0.00165599 
0.00460461 0.00600838 0.00165644 0.00579766 0.00589527 0.00160116 0.00699708 0.0059163 0.00157998 
0.00819706 0.00591034 0.00158262 0.009397 0.00591392 0.00157971 0.0105969 0.00591845 0.00158949 
0.0117967 0.0059241 0.00158379 0.0129964 0.00593055 0.00158128 0.0141963 0.00592906 0.00158474 
0.0153961 0.00593197 0.00158693 0.0165964 0.00593518 0.00158433 0.0177962 0.00593775 0.00158421 
0.0189964 0.00594322 0.00158565 0.0201962 0.00594203 0.00158432 0.0213962 0.00593392 0.00158114 
0.00155446 0.0062207 0.00171756 0.000600663 0.00695796 0.00164607 0.00167003 0.00746407 0.00188761 
0.00400019 0.00705921 0.00166399 0.00519898 0.00705594 0.00161089 0.00639452 0.00695517 0.00158392 
0.00759434 0.00695849 0.00158037 0.00879422 0.00695862 0.00157895 0.00999416 0.00695653 0.00158178 
0.011194 0.00696296 0.00158198 0.0123952 0.00696943 0.0015819 0.0135957 0.00697092 0.00158505 
0.0147955 0.0069734 0.00158468 0.0159952 0.00697421 0.00158227 0.0171952 0.00697779 0.00158239 
0.0183955 0.00698512 0.00158519 0.0195955 0.00698465 0.00158683 0.0207954 0.00698153 0.00158676 
0.000599955 0.0081541 0.00175522 0.00340755 0.00810254 0.00165978 0.0046068 0.00811223 0.00161853 
0.00580601 0.00815381 0.00163582 0.0069948 0.0080005 0.00158016 0.00819468 0.00800012 0.0015837 
0.00939477 0.00800127 0.00158127 0.0105948 0.00800495 0.00158074 0.0117947 0.00800968 0.00158083 
0.0129945 0.0080112 0.00158358 0.0141955 0.00801264 0.00158604 0.0153954 0.00801445 0.00158069 
0.0165952 0.00801961 0.00158592 0.017795 0.00803291 0.00159599 0.018995 0.00802701 0.00158851 
[...]
POINT_DATA 9240
FIELD FieldData 6
id 1 9240 int
8195 7720 5385 1706 2130 7243 3788 1583 7424 
2871 3467 8762 7775 7548 4327 4220 6594 1399 
5744 7063 6738 6680 3238 7336 3350 4488 2993 
5896 3308 2606 7890 5615 8624 5290 5162 5595 
5472 2904 1895 2598 6741 8255 7036 5661 5167 
6616 2040 8951 5229 7170 3275 932 6929 4878 
7751 7742 3319 836 6352 4846 7362 3412 8644 
1261 6426 2912 4790 4758 3627 8487 2485 4560 
8185 878 5722 3183 5812 3520 8344 7270 3772 
8391 3420 3637 6744 5354 6786 6295 4493 6286 
6814 2424 6199 965 3997 6353 7573 6633 2450 
4342 8845 1698 731 4787 4734 2501 6771 4389 
7032 3267 4223 7872 2996 9031 7242 7343 2444 
2789 5244 3697 2495 985 6993 1970 5020 1941 
997 8541 4277 8726 6336 7405 7331 8931 2773 
2849 6350 8784 372 5283 802 1006 8977 6538 
7342 3904 2007 88 6493 8610 5151 4904 1198 
6033 2278 1733 571 6103 4226 7552 3371 308 
3769 5345 6947 3346 4863 8673 8530 8281 3888 
8169 6577 890 5694 1898 6018 430 8318 3689 
3093 858 3344 5519 7051 6677 6991 4120 3259 
3494 3739 5687 7313 8840 1850 110 6214 3361 
2927 8573 5630 7802 6611 5456 7276 8398 5553 
25 681 928 8678 3236 902 3114 5351 2203 
1091 5453 3388 1630 3707 4594 4815 6478 6053 
178 313 3148 4937 9110 9025 5271 7160 2133 
8278 4680 8847 3102 7914 8797 8713 1903 3963 
8576 6752 3826 941 3955 7766 4405 6736 8520 
7191 9043 903 6114 7436 5067 3685 6542 5030 
8161 1977 4857 1375 3382 5956 362 844 3651 
2561 422 4786 4622 1052 8922 6696 8641 3315 
3554 9233 7512 7004 6086 7666 5820 6136 7768 
5655 3258 6117 6107 4061 6763 8224 862 5736 
8737 5199 7363 1069 8739 7513 2979 4235 2811 
8665 3548 6747 4572 1073 5270 8116 4422 5589 
8968 8456 7703 7879 3016 7941 2174 2224 1112 
1111 7447 549 8732 2716 402 5420 6219 8681 
5061 2858 2818 6647 1913 2984 7150 5605 7697 
6909 5348 6150 204 394 7409 2914 6887 4166 
7177 5991 5547 690 1190 5610 1841 3664 439 
2786 4526 1638 5912 8698 2962 9026 7999 8134 
2951 8512 962 6380 8433 546 2343 3510 1586 
9227 1230 4802 6036 7044 2478 2934 4121 312 
3342 7734 8067 6830 5192 7188 3492 775 1710 
3241 7096 1654 867 3263 6603 539 3543 7108 
2675 3514 1994 6697 453 946 8465 5296 2266 
7957 6847 7432 3527 570 4804 5428 8069 8992 
6394 1026 6468 4534 7324 8563 1551 835 377 
6946 3264 4919 5245 4965 3262 3657 5651 2206 
66 7845 8720 7583 8789 6052 1955 6488 6882 
1119 2663 5384 5918 3774 3992 7611 993 8384 
3063 2416 8935 6587 2725 2364 8954 3094 6598 
7143 3978 896 2201 7463 8683 4179 8208 3216 
1274 1074 7372 3291 3119 1603 8023 2625 6416 
2596 2898 870 747 4442 222 2578 6067 479 
5713 2022 6166 5202 1389 4418 5393 1797 4811 
4210 7540 8963 934 3601 7083 5205 2517 6418 
592 2116 8925 4033 4608 1346 9003 1027 6804 
7456 4672 5346 4968 6619 4948 8139 8216 7911 
8375 3225 1133 9156 5108 5051 6708 7690 4467 
4537 4159 7788 429 1664 189 250 4971 6015 
2106 2143 679 2609 1904 9030 5421 5085 3612 
4810 6307 6156 2113 122 4045 8616 5032 5077 
8652 3108 5358 6000 3925 4086 516 6300 5417 
7574 1240 445 2437 490 1457 181 6069 2096 
3591 4769 4879 6315 4031 383 7053 7483 4005 
584 5584 4360 6465 791 3757 5826 4768 7071 
558 756 7282 4858 4477 6273 5954 8076 2573 
3414 6388 1985 8424 5343 7996 281 3805 6565 
588 6904 9068 4838 8484 5698 5434 4605 426 
1193 2330 1264 7102 7555 7125 1465 4416 3297 
7238 4698 8235 5344 1115 4543 1724 5195 5084 
7173 8873 5033 4615 170 4536 1134 1127 4438 
6627 3338 3869 3556 2978 2274 3715 423 8346 
2245 6071 1031 5238 7205 865 2944 2586 1299 
5312 7706 5516 7274 5951 7726 2796 6861 2049 
351 7244 3184 2947 5832 806 1015 476 3828 
7841 1975 8502 3679 9220 6024 7497 1776 1744 
1173 1647 1386 7283 2529 1018 4665 7594 595 
162 7470 5560 8101 8035 6765 2664 7554 7849 
6693 4538 3380 2879 4119 8241 8231 1834 1989 
6328 69 6903 205 8524 6689 8201 8413 2575 
4294 6367 2164 818 8165 3398 4213 816 5210 
3164 5963 1023 8342 6781 944 6241 5851 619 
176 7154 1949 7831 4052 4691 8488 3095 4323 
5964 3118 1191 5146 5981 8613 7927 3356 1105 
30 7496 2746 2997 895 4128 2497 8017 1128 
326 640 7047 1358 3498 4675 983 8207 6013 
1136 4370 7131 581 2029 6952 1613 391 3465 
1665 8643 5490 8897 6932 1003 8436 1572 4651 
1565 8566 1919 3585 8551 8362 3935 1819 9021 
4407 5491 8855 2131 7785 5366 8439 8073 7940 
5117 7435 5017 1627 906 1204 319 9064 3523 
6346 8338 7124 4978 323 6025 6775 3541 4253 
5788 2492 1349 4049 1268 7354 3339 4446 5534 
7261 2119 2427 4877 8172 4900 7592 2348 414 
5711 829 6377 36 1818 7368 3282 8865 8279 
2903 6756 3404 2804 8915 4448 4556 3194 7414 
7880 7942 2058 4619 298 2270 2319 898 6678 
4792 734 4601 1165 8844 8714 3478 5725 5712 
3751 8257 3607 7040 723 2969 8470 6691 420 
2499 5906 5156 4366 7537 8958 4607 8168 7675 
795 8773 671 809 2681 8727 4549 6787 2355 
9202 8819 4952 7736 7441 2369 6264 5325 822 
3450 3898 3665 4590 7403 6746 1222 6059 2094 
187 8964 737 3964 2939 4686 7939 4301 8955 
1277 4043 3506 7255 8292 6267 8399 7339 6842 
8047 2692 5004 8239 7558 1080 4122 8568 6299 
442 5570 7991 8710 1522 4866 9075 8381 8835 
3796 5498 71 342 7355 6519 4749 7856 8356 
5946 2251 7820 3568 1248 3248 3711 5416 1547 
3780 7729 4744 5587 4994 8916 8902 7382 4367 
3022 2099 3146 7030 4812 9104 4126 8013 2179 
4921 339 6460 3471 6924 3406 5395 514 8639 
8588 2018 8862 5575 3927 2975 8000 2873 7600 
146 1563 8836 53 7022 5649 4050 3212 4341 
43 4308 6153 738 7052 4896 6679 6699 631 
5352 3771 6002 825 267 3958 3096 5094 3155 
676 5318 7891 1731 6877 4001 3834 1720 2923 
293 3699 6337 5879 8416 2410 793 1441 4635 
213 1576 2403 4149 8970 4720 2494 3550 6266 
2489 5100 2673 5176 335 1667 1412 1632 2925 
1503 7290 5323 8943 6922 6832 6853 4575 1382 
59 3901 2566 8703 5493 5640 6524 227 6355 
3001 8475 1640 8222 6179 7632 4574 2238 1330 
4639 6815 2227 134 7979 1540 623 755 2877 
3536 5577 2420 6231 7351 4939 3623 1049 5038 
4801 6201 63 266 8322 7408 488 3794 4891 
8408 3695 8298 5942 4362 8237 7901 2248 8422 
2780 5959 2608 8629 6637 6091 8158 920 2645 
912 7761 230 6776 4625 2894 7897 9037 9237 
5720 3969 5306 1328 6506 6869 2311 2371 5727 
6446 8343 959 4102 6645 5441 4689 7711 3649 
7771 7965 6061 2463 127 8137 3709 7104 7067 
6171 5909 5928 9219 4245 8376 4478 6630 6949 
5704 7398 7371 9224 1132 4848 4829 6184 7344 
1506 5305 2160 955 963 1102 2601 7826 3174 
923 5634 8414 4303 1186 4026 1899 336 5891 
2863 6275 7881 5275 2695 1651 2109 400 6323 
9239 3632 7837 4775 9122 8232 7642 3872 1062 
4516 3914 6817 695 1718 2570 365 3086 1500 
3169 652 2991 6308 6995 1189 986 6823 7380 
8686 6396 8193 1526 4990 1637 8868 8287 1877 
4173 7198 1047 4629 1779 3590 5076 4187 5523 
1306 264 856 2448 5107 2837 4430 842 5008 
425 5697 2580 866 7411 3077 3835 4660 3247 
9222 779 7136 3340 6042 366 8617 1305 2957 
6304 1610 8277 8480 6123 6698 8357 8515 5248 
3701 2889 8252 4433 7547 5635 8690 1600 3037 
1460 3345 7134 507 4597 4392 4437 6836 7773 
7971 1808 5549 7887 6863 6309 406 3643 5768 
6705 4435 9019 4450 47 167 7128 5134 7636 
9111 6382 5361 5000 8106 5902 6788 6365 2738 
4730 6503 6610 3942 5041 1617 2383 1619 8032 
1493 7337 7127 8189 4075 5943 4441 8778 8070 
6900 8612 3070 4044 4082 1639 3038 2799 7966 
5531 2713 6859 3974 5916 606 137 7623 7654 
4835 5940 6050 4471 6550 8511 8301 4782 4084 
3043 4752 7269 5003 2320 1677 3103 8088 3840 
5252 5130 6722 9101 5261 341 3980 9181 3580 
4351 2602 7162 3004 7275 984 7438 6712 5927 
7648 6486 5350 3752 2691 4468 6030 5850 6621 
656 7325 4814 6390 1407 2409 6414 3861 3230 
968 2273 1355 6748 8179 1059 5658 1309 5743 
5397 4431 6274 6413 2918 3439 5190 1381 8431 
467 4714 6340 8735 6445 4234 6066 2169 5622 
551 8055 8517 5409 2011 4942 9234 7557 4746 
3879 3276 1016 1851 6146 8120 3574 4288 6912 
11 5221 4364 6313 6578 2727 8406 262 4151 
2048 6437 5142 2231 4559 2101 4315 5699 8312 
5978 6501 6865 5882 1475 1435 1449 5024 2322 
8078 8177 7860 2669 3201 8331 1536 96 954 
5715 7687 2621 1295 3386 6825 475 1199 2723 
1020 7267 3786 3630 3423 5455 8454 949 2682 
5339 8071 9082 8018 1395 4676 4329 2504 4780 
4015 4981 7498 5219 2459 5970 1058 8661 7246 
6410 6514 3458 7443 4909 5376 1005 5606 2949 
8313 1216 6006 743 4970 6163 5125 5972 812 
3740 2906 1396 3931 2476 5690 3021 3763 4641 
1502 4111 6208 4658 7155 6743 4115 6462 3538 
270 4461 274 4079 2054 3672 6331 7120 1262 
8330 4926 8027 346 3207 4006 363 8486 3829 
7092 5791 7058 5159 8699 751 1288 4640 7057 
6311 8752 9228 4791 1844 5742 1162 4018 3214 
5614 2584 3854 2346 1633 2042 4189 8744 1238 
7974 6605 7045 6675 8750 8645 2972 8930 2977 
3325 9151 1755 5783 3783 2853 5102 7848 1803 
823 6749 6425 5652 5852 7366 1938 5872 4633 
8577 8143 5164 1409 4585 2880 936 1373 32 
252 3457 2111 9205 7806 8080 2535 7750 7208 
1234 5817 332 3235 5515 8883 1917 7869 8729 
1756 3952 6866 4600 5460 4337 61 1821 6683 
8463 2690 4587 960 9207 8230 8709 8434 762 
5884 2083 6097 2072 7273 1455 3844 4887 5040 
1357 7251 2838 7235 1415 7359 6099 6169 54 
3661 529 253 3228 7427 1171 8052 675 8219 
1829 6191 4729 1176 3775 805 6721 7758 3666 
2868 6789 6360 5013 3050 374 4198 3041 5031 
8799 2465 5012 5899 3850 1683 911 8759 6811 
7639 6095 8772 583 6526 1398 3493 8985 4279 
310 1205 6889 4818 8622 8866 2198 5097 5815 
6917 8894 8190 2296 2033 8072 3987 1568 688 
3912 8689 1256 5438 3755 8410 2146 4771 1626 
717 5628 519 74 6222 5036 471 5387 3464 
8811 3818 2068 6996 3224 7778 3667 3076 3619 
4670 3367 7692 4947 7883 8602 938 5876 6968 
2715 3806 5029 6626 945 1513 693 5988 8813 
5157 627 3990 1437 9009 2067 5193 5642 7213 
3830 3529 7704 6094 8477 7741 7277 9136 4480 
6269 5308 7800 877 5828 8877 5568 4282 7328 
7434 2684 8038 7034 1711 3735 4248 4531 2612 
6528 540 7026 4943 8982 667 2228 4821 5442 
2044 2487 2776 2816 4263 5930 1436 5401 3764 
4613 2052 5843 6098 4424 5015 2800 3896 6937 
3054 7556 6433 6120 6293 4097 2252 4196 2486 
7717 1616 5310 6750 3379 680 2767 5566 4063 
3385 3792 5813 8264 2631 8369 6454 8283 246 
2600 1695 1311 221 7492 2597 2739 452 436 
3210 6196 5666 6772 7967 8156 7774 5183 781 
5753 7769 1905 4299 5340 6474 4577 3622 6294 
700 8806 3066 7499 5631 5025 5915 4040 2784 
7148 1730 6407 4503 7764 785 3934 3172 8218 
8163 6491 6138 8339 5544 7329 403 320 2875 
560 2813 369 7681 5050 3490 3289 4322 1076 
1188 7663 2161 4805 5923 3485 709 8366 3480 
8008 7230 7350 7370 1452 8605 3453 845 382 
8429 7753 5005 3369 6586 2436 7080 6871 5492 
3099 4593 1642 2162 45 6706 1496 2285 1124 
5437 8621 6110 5302 9103 1580 1925 3143 9096 
1098 1769 415 6151 7265 3370 2329 1544 6857 
7072 4747 2336 1369 2103 6878 130 8691 8527 
6548 8817 4797 8794 8115 6808 7622 2640 1201 
1788 1154 219 5200 8988 4490 3525 4506 1336 
6335 7165 6985 4385 6452 1480 1691 15 1391 
60 4383 5062 8349 7544 2315 5104 5034 8361 
8340 8250 9091 446 8557 2210 1510 4053 9057 
3008 4363 5809 2907 7588 4717 3283 4068 2484 
2334 8650 7718 2960 8479 8941 2105 5659 8597 
4876 4544 7002 1259 6139 589 6997 166 2120 
568 4201 9188 8295 5755 6835 7429 9231 4038 
4320 9027 1609 8447 1086 1290 2802 5118 3141 
2674 8774 6727 6854 5598 3787 1484 1806 6588 
1861 2610 502 5955 5083 4893 7060 577 6628 
2762 5501 7227 7602 5435 8296 4463 1538 2342 
6383 1451 921 23 9218 644 334 8348 5602 
7262 6862 161 3600 1945 3966 3335 4186 2764 
3358 3897 5124 7740 1092 6126 2667 7514 8608 
2982 7522 7320 2714 1641 3807 7633 7565 1231 
4508 6710 8731 8526 2656 6083 6111 7533 8390 
6085 1420 3652 9179 6643 1459 9054 3880 2108 
3387 6432 2087 4882 2468 2402 5961 7981 8325 
8112 6813 4010 6119 1051 1972 1137 8099 4742 
1515 2766 239 1343 1001 2748 6713 7847 5759 
1376 830 3244 7949 803 909 4976 5079 4350 
6268 3298 2036 1766 3300 3675 4164 1361 1911 
6389 55 3687 8485 4832 4761 6663 919 3513 
8334 887 3908 6185 6983 1615 6568 3158 5056 
7016 7241 6256 6221 5512 6259 7190 1267 4685 
761 4453 4290 7587 8620 3530 6131 2515 7182 
3853 538 1492 5122 7638 897 5189 449 6918 
5039 5838 9097 8764 7420 999 4808 1787 5596 
3646 1602 4085 5578 3799 1812 6999 7585 5317 
6964 1279 8336 5728 3604 3124 3923 3447 2747 
1582 8558 1113 6512 2313 4409 699 7992 6142 
7627 3327 7846 302 495 1414 2847 6189 8983 
7224 3864 8217 7589 6911 4632 838 4706 6560 
2926 6612 2677 726 1714 4523 7199 2001 2779 
5643 1142 4157 3495 8829 8449 678 8675 150 
1172 7228 3313 4459 1036 4652 6007 8353 7672 
6883 2379 7299 3147 6640 1104 4563 1892 7458 
145 5043 609 6027 2443 5463 4332 1835 6818 
3154 7893 1079 3443 2699 5457 8747 2291 7378 
6442 7105 5014 5764 4504 5966 7394 3049 6324 
2755 8144 1282 6017 1780 6902 480 8378 1379 
4274 7319 515 6127 7551 7192 3917 4373 5249 
261 7973 3302 8444 8347 7505 2881 4666 8707 
8730 7495 8721 4657 8933 473 6020 2792 2743 
4783 3703 7119 3204 4931 6860 3192 70 7304 
4566 4998 216 9063 1239 4567 4899 2134 5023 
5365 4781 4118 1318 2571 5378 6203 6490 7510 
5266 7696 1135 4513 3132 6695 2956 5982 2921 
2304 5550 4735 4697 720 8761 67 8341 5682 
3166 4914 3944 8460 7934 111 3384 3777 9090 
2901 4765 1408 3074 6374 1469 7569 5231 3279 
7306 8921 4830 1599 8583 666 7908 1454 7129 
4058 7318 6757 3428 5863 8704 6685 1849 3582 
1966 6356 2545 2724 650 2181 1748 8554 7481 
1753 4250 1486 2854 6636 6957 4973 8564 692 
8748 103 3129 8297 7728 8003 3732 1921 2998 
2417 1840 1223 2104 798 276 6570 3985 1940 
591 7396 6602 4309 9099 1053 1867 5224 4328 
1589 5632 4161 4803 3255 6278 90 5786 290 
2665 1933 1750 5477 1629 5303 7392 8891 6617 
6253 526 8768 100 2079 5796 7634 3565 2955 
3811 1992 4520 48 7295 133 5071 1815 1996 
2414 6070 1344 530 891 6174 8497 4992 8299 
3483 1096 4898 880 1085 7824 4841 9164 5996 
2521 961 9074 1963 1761 8716 3083 4583 5917 
5241 6651 2172 8586 8663 4066 8037 1476 4495 
1247 2004 1450 8040 6613 7487 5880 4826 7670 
8021 1591 9139 1138 1427 8123 6265 4569 4093 
1055 5388 1893 6986 5597 5865 7909 2356 7862 
3789 674 4384 1952 7301 7357 5314 9238 4406 
5845 4733 2407 4080 6791 6620 6759 269 7123 
8790 2876 8153 5623 3055 8791 8907 1924 3849 
4339 7825 6987 232 5424 3648 6702 5644 8015 
5181 1569 4469 2541 8653 3877 2511 3860 7307 
3734 5513 7661 6399 5131 397 608 586 1393 
194 8039 6420 8561 6581 6113 7009 6780 6858 
1432 882 4631 3381 8363 1823 5175 5665 7511 
4833 9066 4246 2498 1308 6046 2082 8592 6128 
7484 784 2661 7571 6354 2406 5757 5070 7780 
2678 6754 1858 6670 3702 6297 3196 7828 4614 
4831 4932 8831 7674 316 6943 6720 3181 1255 
4707 4945 8427 6351 6302 5999 8999 2097 2953 
886 9039 7814 4101 224 1886 7387 7444 8672 
8290 1153 7461 6635 1021 7733 6207 1878 4681 
7782 3087 4986 4764 7679 4527 6571 7668 6585 
4712 980 6910 7462 8905 2976 5911 1645 4704 
9095 7193 6558 1324 740 4988 7031 9172 8664 
3939 5770 1686 163 7787 7563 5467 1385 7010 
4257 874 7884 5903 4494 4756 4380 5174 8417 
2237 8124 2696 7323 5533 2624 2351 4634 6038 
1430 6496 2649 8453 4091 5582 9134 6982 3599 
4070 8401 3152 203 8839 8912 2865 1078 521 
6766 9015 9118 4144 2986 1934 255 1458 6916 
7834 5445 1539 8409 5099 5995 3819 9078 8420 
1671 4869 8792 3989 3640 6316 3874 2430 1923 
9240 8648 1116 8537 3460 3645 4755 6831 4145 
4004 1914 2182 6622 8805 5563 4137 3954 3698 
6940 4870 64 2158 3902 3922 5735 6725 2647 
853 6088 1403 5708 3724 1543 9060 3324 4030 
9162 3728 1577 5611 209 7459 3110 5250 2855 
3507 972 633 7799 3286 392 6515 8816 3139 
5253 8022 3956 3222 3781 4368 4140 850 487 
8211 5769 1777 7693 821 4654 1100 3881 9005 
1477 5691 8909 7878 8261 375 7819 304 237 
7431 6321 3223 461 8380 2549 5608 3801 504 
1807 3397 3057 4286 1070 1067 5267 8337 8599 
4444 9010 893 1546 1121 3009 7525 8452 7560 
4817 2385 2441 3470 3999 494 9182 1673 4989 
2419 2752 7383 5774 6245 215 5538 2360 8589 
6874 7840 2787 6132 3920 9013 7078 8989 5293 
6175 6607 465 1891 4596 5311 1813 6920 6108 
7413 4096 8640 1130 3459 7321 8355 3994 511 
2479 3044 7418 1592 5297 1605 5045 1696 6021 
4922 7111 7614 2454 1340 8918 8630 3394 3151 
6779 7062 1227 8743 1364 5116 1082 4034 379 
9017 7020 260 7025 1320 5626 7676 8587 5309 
2267 4225 3454 2395 6430 6958 8687 787 4999 
8011 4774 6523 5800 5307 6606 7508 4123 98 
3778 7252 513 883 4822 5486 9166 3128 6032 
7141 6941 5011 3466 4475 7082 1470 5656 6819 
5936 396 3512 2706 1168 1488 1965 4428 3863 
6084 5613 5451 5280 2701 3758 6532 9232 8850 
5962 5169 5145 4702 1258 5695 5064 3531 4683 
5537 6014 2200 3218 8142 7055 3762 5461 5798 
2835 8780 2333 6249 2737 8089 8258 2588 1690 
3363 6440 5585 1785 9130 4671 3802 2244 8802 
8754 3393 5707 62 9142 6325 1969 3906 2439 
7133 2150 3569 8864 2639 5868 5806 1865 3847 
3329 4440 8319 6802 8611 5751 2300 4486 8857 
1976 648 8953 5674 7377 6202 4977 9144 7477 
881 5086 2891 6422 668 4856 7523 5475 7789 
5617 3352 3336 5869 6740 2387 5900 8826 3911 
5526 7445 9158 5053 3213 1429 5739 6089 4361 
797 4906 6385 6240 8870 6803 1453 8741 1869 
278 8033 907 5404 4996 5367 3577 7924 4238 
4307 996 8860 1109 5762 4249 5969 4129 1039 
2963 3581 8535 8734 6441 7843 2930 5158 1794 
1740 4852 4507 6489 3122 2361 3644 7430 7900 
8194 3573 4793 3326 7616 2223 8567 4579 913 
1298 5483 7794 8736 8105 3130 4710 1575 4564 
1474 5681 3260 4028 2861 839 8542 5609 3007 
6921 5998 1365 1291 1545 847 7605 4215 164 
2509 8308 5480 9149 7326 6955 7391 7812 2295 
8671 6312 2735 541 766 4465 8471 3413 65 
1158 4827 3468 3377 3983 1573 5993 5247 1937 
2236 1421 322 7685 8973 3919 3710 2822 6075 
7018 2055 2064 6453 7713 2061 3187 5702 6511 
1249 7021 8724 7437 8590 6934 5196 7752 5208 
5236 5454 790 8174 3400 1657 3714 3729 7210 
235 7976 6040 1501 4391 3979 5535 7393 724 
5499 1889 3479 2214 6948 2729 9153 3733 1798 
7467 5505 4357 1833 4269 2189 3584 3463 5063 
2366 3588 3760 2507 548 4206 9041 5795 2367 
3061 3571 8006 4347 579 1185 8849 3663 1129 
1332 7816 3903 1781 370 5027 5294 6886 1699 
6733 3578 7593 7100 5289 447 2186 7335 4394 
5111 3744 8697 6289 8990 2895 9067 8005 879 
1773 3288 8634 1958 318 4705 5496 4519 3625 
8565 5476 1337 8352 3416 303 6197 5055 5019 
8215 6508 808 7086 2080 1108 7077 7093 6022 
7838 506 5775 6576 5057 1681 1032 4616 6549 
8991 2846 820 5316 7381 7738 2481 8280 4148 
408 4348 2139 8419 5379 4390 8243 8685 4649 
5836 3821 7754 2307 5562 6551 6427 1729 613 
4112 1743 5518 330 139 129 7379 800 6130 
2391 6653 7686 5733 5689 508 6529 4696 7028 
6676 6895 4716 8956 6718 407 6364 4331 4653 
3203 3884 8432 3770 9059 814 325 5369 3899 
4692 8666 1517 5979 5616 5356 4132 4510 1890 
7450 6472 2519 8045 2728 2265 1556 5960 5450 
243 4816 168 801 2340 4677 3674 9086 2829 
7043 2604 3438 3088 3932 7915 2781 5218 8498 
767 4439 6827 4993 3347 6591 3395 5794 4412 
7595 4194 3476 3332 1648 401 559 868 5747 
3105 7700 21 4897 1549 1857 8688 1351 677 
2256 8 6246 5799 18 3431 3013 4719 8490 
2650 788 1555 1011 2798 3534 1354 1066 8712 
5839 8906 6009 8320 3747 533 5398 9100 1087 
2035 2017 924 1013 2253 8674 4057 35 8984 
998 7932 4338 6397 6954 22 8507 497 4915 
6810 9200 5233 268 5937 6178 8715 7473 1442 
1310 482 6147 4602 1659 8979 2071 3597 6133 
4436 2157 2643 2671 151 4073 8978 4343 2024 
7902 8096 6632 4806 5953 7631 733 2731 3824 
5405 2937 2359 8085 5220 5411 6149 9048 157 
3221 5574 8048 9079 5098 2732 2204 9002 349 
2533 5678 350 7180 1077 9206 2123 6593 597 
2145 1217 636 8379 6039 2827 6666 5257 9032 
6669 2824 4211 1300 9221 2462 2086 6419 5703 
5919 8879 8820 939 3160 6028 8087 8060 7664 
522 8445 1443 687 2098 5559 2149 6793 7223 
6898 7197 2255 2471 2686 7929 7500 5816 7844 
1792 3705 3131 8093 6393 4860 1101 4125 2721 
1553 6562 9072 4427 691 352 4678 5957 9083 
8896 6391 4399 1372 6049 2593 3765 956 3144 
7821 2002 3624 5113 6719 1463 8009 5980 527 
6381 4103 1763 3684 8122 8315 2397 6773 5502 
8615 8770 1588 5730 5282 5058 5276 7707 1464 
7539 8345 796 7310 7296 1918 76 8756 7076 
7327 7186 8513 7452 8476 4788 5897 4956 4547 
3334 5619 6079 1728 905 4060 6965 5436 1531 
2994 7608 2542 6971 337 1775 7723 4388 8889 
1947 8183 7859 8228 547 4553 831 4227 7822 
5232 9108 4798 4160 1754 7233 517 544 3426 
331 5938 5078 1655 2249 4558 9 4326 2636 
2287 2293 1532 5300 484 9093 7647 3142 1883 
3030 2425 6238 6574 4200 1995 4966 4997 2795 
982 1041 8579 5763 3231 1331 9189 649 7630 
1301 7059 3641 4770 3862 498 5234 1155 4415 
2235 989 5797 884 7286 412 7397 287 3068 